
#(C) 2021 by FIZ Karlsruhe - Leibniz Institute for Information Infrastructure.  All rights reserved.
data_260062-ICSD
_database_code_ICSD 260062
_audit_creation_date 2009-02-01
_chemical_name_common 'Barium dicobalt(II) bis(arsenate(V))'
_chemical_formula_structural 'Ba Co2 (As O4)2'
_chemical_formula_sum 'As2 Ba1 Co2 O8'
_chemical_name_structure_type BaNi2V2O8
_exptl_crystal_density_diffrn 5.21
_diffrn_ambient_temperature 293.
_citation_title 'Ba Co2 (As O4)2'
loop_
_citation_id
_citation_journal_full
_citation_year
_citation_journal_volume
_citation_page_first
_citation_page_last
_citation_journal_id_ASTM
primary 'Acta Crystallographica, Section E: Structure Reports Online' 2008 64
i58 i59 ACSEBH
loop_
_citation_author_citation_id
_citation_author_name
primary 'Dordevic, T.'
_cell_length_a 5.0070(10)
_cell_length_b 5.0070(10)
_cell_length_c 23.491(5)
_cell_angle_alpha 90.
_cell_angle_beta 90.
_cell_angle_gamma 120.
_cell_volume 510.02
_cell_formula_units_Z 3
_space_group_name_H-M_alt 'R -3 H'
_space_group_IT_number 148
loop_
_space_group_symop_id
_symmetry_equiv_pos_as_xyz
1 'x-y, x, -z'
2 'y, -x+y, -z'
3 '-x, -y, -z'
4 '-x+y, -x, z'
5 '-y, x-y, z'
6 'x, y, z'
7 'x-y+2/3, x+1/3, -z+1/3'
8 'y+2/3, -x+y+1/3, -z+1/3'
9 '-x+2/3, -y+1/3, -z+1/3'
10 '-x+y+2/3, -x+1/3, z+1/3'
11 '-y+2/3, x-y+1/3, z+1/3'
12 'x+2/3, y+1/3, z+1/3'
13 'x-y+1/3, x+2/3, -z+2/3'
14 'y+1/3, -x+y+2/3, -z+2/3'
15 '-x+1/3, -y+2/3, -z+2/3'
16 '-x+y+1/3, -x+2/3, z+2/3'
17 '-y+1/3, x-y+2/3, z+2/3'
18 'x+1/3, y+2/3, z+2/3'
loop_
_atom_type_symbol
_atom_type_oxidation_number
Ba2+ 2
Co2+ 2
As5+ 5
O2- -2
loop_
_atom_site_label
_atom_site_type_symbol
_atom_site_symmetry_multiplicity
_atom_site_Wyckoff_symbol
_atom_site_fract_x
_atom_site_fract_y
_atom_site_fract_z
_atom_site_U_iso_or_equiv
_atom_site_occupancy
Ba1 Ba2+ 3 a 0. 0. 0. 0.01170(15) 1
Co1 Co2+ 6 c 0. 0. 0.17014(2) 0.00614(16) 1
As1 As5+ 6 c 0.3333 0.6667 0.091941(18) 0.00473(15) 1
O1 O2- 6 c 0.3333 0.6667 0.02145(13) 0.0118(6) 1
O2 O2- 18 f 0.0163(4) 0.3375(4) 0.11476(7) 0.0077(3) 1
loop_
_atom_site_aniso_label
_atom_site_aniso_type_symbol
_atom_site_aniso_U_11
_atom_site_aniso_U_22
_atom_site_aniso_U_33
_atom_site_aniso_U_12
_atom_site_aniso_U_13
_atom_site_aniso_U_23
Ba1 Ba2+ 0.01138(17) 0.01138(17) 0.0124(2) 0.00569(8) 0. 0.
Co1 Co2+ 0.00474(19) 0.00474(19) 0.0089(3) 0.00237(9) 0. 0.
As1 As5+ 0.00414(16) 0.00414(16) 0.0059(2) 0.00207(8) 0. 0.
O1 O2- 0.0149(9) 0.0149(9) 0.0055(13) 0.0075(5) 0. 0.
O2 O2- 0.0055(7) 0.0050(7) 0.0116(8) 0.0019(6) 0.0017(6) 0.0020(6)
#End of TTdata_260062-ICSD